 Gaussian 09, Revision E.01,
 Gaussian 09:  ES64L-G09RevE.01 30-Nov-2015

 -------------------------------------------------------
 #n m062x/6-311G(d,p) SP scf=maxcycle=1000 maxdisk=100Gb
 -------------------------------------------------------

 --------------
 chembl344174sp
 --------------
 Symbolic Z-matrix:
 Charge = -1 Multiplicity = 2

                         Standard orientation:
 ---------------------------------------------------------------------
 Center     Atomic      Atomic             Coordinates (Angstroms)
 Number     Number       Type             X           Y           Z
 ---------------------------------------------------------------------
      1          7           0        3.222239    2.546839    1.627690
      2          6           0        2.843019    2.330639    0.565980
      3          6           0        2.367409    2.032069   -0.798770
      4          7           0        1.163699    1.234529   -0.804850
      5          6           0       -0.042961    1.820179   -0.552190
      6          8           0       -0.183301    3.019459   -0.468850
      7          6           0       -1.198851    0.825509   -0.345000
      8          6           0       -2.543521    1.550379   -0.389330
      9          6           0       -3.701971    0.590989   -0.293090
     10          6           0       -4.379741    0.397549    0.908700
     11          6           0       -5.427051   -0.513311    0.996910
     12          6           0       -5.809651   -1.245241   -0.120830
     13          6           0       -5.141131   -1.059581   -1.326750
     14          6           0       -4.096321   -0.147821   -1.409550
     15          7           0       -1.027651    0.150809    0.936240
     16          6           0       -0.219531   -0.917321    1.169210
     17          8           0        0.092689   -1.324711    2.257510
     18          8           0        0.188079   -1.477521   -0.002420
     19          6           0        1.205499   -2.492421    0.098750
     20          6           0        2.557619   -1.859901   -0.109890
     21          6           0        3.175779   -1.165231    0.933180
     22          6           0        4.394559   -0.528771    0.724050
     23          6           0        5.003679   -0.579911   -0.527030
     24          6           0        4.388869   -1.262181   -1.572750
     25          6           0        3.167529   -1.896361   -1.363480
     26          1           0        3.156819    1.495399   -1.327230
     27          1           0        2.170399    2.978629   -1.304310
     28          1           0        1.247769    0.228089   -0.768420
     29          1           0       -1.163801    0.060419   -1.122630
     30          1           0       -2.572411    2.287849    0.417230
     31          1           0       -2.588341    2.117649   -1.321520
     32          1           0       -4.091171    0.972499    1.782830
     33          1           0       -5.944101   -0.649741    1.939220
     34          1           0       -6.626411   -1.953741   -0.054320
     35          1           0       -5.437601   -1.621881   -2.204450
     36          1           0       -3.584021    0.000629   -2.355550
     37          1           0       -1.279611    0.657169    1.773270
     38          1           0        0.979259   -3.208131   -0.690190
     39          1           0        1.127759   -2.972141    1.073360
     40          1           0        2.692679   -1.121441    1.903890
     41          1           0        4.860219    0.017219    1.535210
     42          1           0        5.957119   -0.089491   -0.684950
     43          1           0        4.861229   -1.306711   -2.546970
     44          1           0        2.687019   -2.430931   -2.176630
 ---------------------------------------------------------------------

 SCF Done:  E(UM062X) =  -1125.23295895     A.U. after   39 cycles

 The electronic state is 2-A.
 Alpha  occ. eigenvalues --  -19.53675 -19.49807 -19.47722 -14.67050 -14.66935
 Alpha  occ. eigenvalues --  -14.63123 -10.57657 -10.54753 -10.50789 -10.49988
 Alpha  occ. eigenvalues --  -10.46692 -10.46271 -10.46216 -10.46081 -10.46062
 Alpha  occ. eigenvalues --  -10.45965 -10.45874 -10.45778 -10.45654 -10.38918
 Alpha  occ. eigenvalues --  -10.38362 -10.37564 -10.36689 -10.36504 -10.36076
 Alpha  occ. eigenvalues --   -1.11821  -1.07839  -1.02226  -0.95011  -0.93774
 Alpha  occ. eigenvalues --   -0.89922  -0.88372  -0.80844  -0.80210  -0.76300
 Alpha  occ. eigenvalues --   -0.75858  -0.73093  -0.72110  -0.68368  -0.65776
 Alpha  occ. eigenvalues --   -0.65006  -0.61126  -0.58671  -0.57473  -0.56493
 Alpha  occ. eigenvalues --   -0.53721  -0.53207  -0.51562  -0.51240  -0.50203
 Alpha  occ. eigenvalues --   -0.49092  -0.46577  -0.45944  -0.45219  -0.44706
 Alpha  occ. eigenvalues --   -0.44101  -0.43455  -0.41890  -0.41220  -0.40810
 Alpha  occ. eigenvalues --   -0.39897  -0.39023  -0.38733  -0.38094  -0.37715
 Alpha  occ. eigenvalues --   -0.36833  -0.35572  -0.34602  -0.34065  -0.33633
 Alpha  occ. eigenvalues --   -0.33178  -0.32884  -0.31774  -0.31641  -0.30083
 Alpha  occ. eigenvalues --   -0.29533  -0.28518  -0.27825  -0.27497  -0.26680
 Alpha  occ. eigenvalues --   -0.24743  -0.24197  -0.23188  -0.22970  -0.22636
 Alpha  occ. eigenvalues --   -0.21959  -0.20824  -0.16258  -0.15901   0.05568
 Alpha virt. eigenvalues --    0.09454   0.10754   0.14593   0.15033   0.16628
 Alpha virt. eigenvalues --    0.17084   0.17606   0.18348   0.19401   0.19655
 Alpha virt. eigenvalues --    0.19884   0.20589   0.20891   0.21532   0.22539

  Beta  occ. eigenvalues --  -19.53591 -19.49795 -19.47688 -14.67047 -14.66935
  Beta  occ. eigenvalues --  -14.63113 -10.57645 -10.54749 -10.50787 -10.49983
  Beta  occ. eigenvalues --  -10.46686 -10.46271 -10.46219 -10.46077 -10.46063
  Beta  occ. eigenvalues --  -10.45963 -10.45855 -10.45785 -10.45631 -10.38947
  Beta  occ. eigenvalues --  -10.38415 -10.37498 -10.36505 -10.36388 -10.35877
  Beta  occ. eigenvalues --   -1.11670  -1.07810  -1.02064  -0.94981  -0.93758
  Beta  occ. eigenvalues --   -0.89898  -0.88317  -0.80762  -0.79764  -0.76237
  Beta  occ. eigenvalues --   -0.75813  -0.73015  -0.71727  -0.67990  -0.65616
  Beta  occ. eigenvalues --   -0.64694  -0.61043  -0.58618  -0.57400  -0.56250
  Beta  occ. eigenvalues --   -0.53472  -0.53129  -0.51206  -0.50994  -0.49968
  Beta  occ. eigenvalues --   -0.49063  -0.46522  -0.45911  -0.45055  -0.44664
  Beta  occ. eigenvalues --   -0.43998  -0.43216  -0.41819  -0.41094  -0.40733
  Beta  occ. eigenvalues --   -0.39806  -0.38847  -0.38608  -0.37979  -0.37474
  Beta  occ. eigenvalues --   -0.36783  -0.35368  -0.34403  -0.33873  -0.33443
  Beta  occ. eigenvalues --   -0.33100  -0.32575  -0.31727  -0.31583  -0.29747
  Beta  occ. eigenvalues --   -0.29451  -0.28346  -0.27357  -0.26940  -0.26498
  Beta  occ. eigenvalues --   -0.24600  -0.23852  -0.23134  -0.22712  -0.22403
  Beta  occ. eigenvalues --   -0.21785  -0.20713  -0.14837  -0.13442
  Beta virt. eigenvalues --    0.10543   0.10780   0.14571   0.15095   0.16571
  Beta virt. eigenvalues --    0.16933   0.17692   0.18085   0.18454   0.19449
  Beta virt. eigenvalues --    0.19614   0.19779   0.20679   0.21004   0.21796

 Mulliken charges and spin densities:
               1          2
     1  N   -0.294815   0.007449
     2  C    0.127606   0.001739
     3  C   -0.156236   0.004940
     4  N   -0.454704  -0.000516
     5  C    0.499461   0.005634
     6  O   -0.414458   0.005054
     7  C   -0.187973   0.005925
     8  C   -0.315150   0.001053
     9  C   -0.064503   0.008906
    10  C   -0.095267  -0.004740
    11  C   -0.145140   0.047210
    12  C   -0.131701   0.006573
    13  C   -0.129188   0.000796
    14  C   -0.099237   0.048964
    15  N   -0.451474  -0.002185
    16  C    0.594135   0.019125
    17  O   -0.427642   0.013350
    18  O   -0.393210   0.004345
    19  C   -0.127864   0.043851
    20  C   -0.196614   0.266967
    21  C   -0.206032   0.225710
    22  C   -0.125537  -0.088219
    23  C   -0.246440   0.333643
    24  C   -0.191157   0.122621
    25  C   -0.116871  -0.041817
    26  H    0.221042  -0.002223
    27  H    0.180861   0.000983
    28  H    0.303485   0.002409
    29  H    0.202088   0.005832
    30  H    0.166253  -0.000198
    31  H    0.169971   0.000907
    32  H    0.111923  -0.000311
    33  H    0.108945  -0.002686
    34  H    0.107465  -0.000625
    35  H    0.109422  -0.000300
    36  H    0.115743  -0.003751
    37  H    0.249401   0.000772
    38  H    0.121283  -0.000794
    39  H    0.158124   0.006880
    40  H    0.114306  -0.015408
    41  H    0.100578   0.001506
    42  H    0.067870  -0.020163
    43  H    0.068555  -0.008990
    44  H    0.072698  -0.000218
 Sum of Mulliken charges =  -1.00000   1.00000

 Dipole moment (field-independent basis, Debye):
    X=             -9.8004    Y=              0.8983    Z=             -3.8557  Tot=             10.5698
 Quadrupole moment (field-independent basis, Debye-Ang):
   XX=           -214.2110   YY=           -176.2458   ZZ=           -158.2982
   XY=              9.8504   XZ=             -9.4057   YZ=             -0.9428

 Normal termination of Gaussian 09 at Fri Feb 11 12:26:12 2022.
